Generated by Psi4
     FORCE                           SCF                       6-31G**
Number of atoms                            I                5
Charge                                     I                0
Multiplicity                               I                1
Number of electrons                        I               10
Number of alpha electrons                  I                5
Number of beta electrons                   I                5
Number of basis functions                  I               35
Number of independent functions            I               35
Atomic numbers                             I   N=           5
           6           1           1           1           1
Nuclear charges                            R   N=           5
  6.00000000e+00  1.00000000e+00  1.00000000e+00  1.00000000e+00  1.00000000e+00
Current cartesian coordinates              R   N=          15
 -4.23982907e-09 -1.61349987e-08 -1.37037682e-10 -1.25425320e+00  1.61115075e+00
 -1.57725898e-01 -7.54340811e-01 -1.56154067e+00 -1.08921800e+00  1.58018767e-01
 -5.52220258e-01  1.96568516e+00  1.85057530e+00  5.02610379e-01 -7.18741263e-01
Integer atomic weights                     I   N=           5
          12           1           1           1           1
Real atomic weights                        R   N=           5
  1.20000000e+01  1.00782503e+00  1.00782503e+00  1.00782503e+00  1.00782503e+00
Number of primitive shells                 I               35
Number of contracted shells                I               18
Pure/Cartesian d shells                    I                1
Pure/Cartesian f shells                    I                1
Highest angular momentum                   I                2
Largest degree of contraction              I                6
Shell types                                I   N=          18
           0           0           1           0           1           2
           0           0           1           0           0           1
           0           0           1           0           0           1
Number of primitives per shell             I   N=          18
           6           3           3           1           1           1
           3           1           1           3           1           1
           3           1           1           3           1           1
Shell to atom map                          I   N=          18
           1           1           1           1           1           1
           2           2           2           3           3           3
           4           4           4           5           5           5
Primitive exponents                        R   N=          35
  3.04752490e+03  4.57369510e+02  1.03948690e+02  2.92101550e+01  9.28666300e+00
  3.16392700e+00  7.86827240e+00  1.88128850e+00  5.44249300e-01  7.86827240e+00
  1.88128850e+00  5.44249300e-01  1.68714400e-01  1.68714400e-01  8.00000000e-01
  1.87311370e+01  2.82539370e+00  6.40121700e-01  1.61277800e-01  1.10000000e+00
  1.87311370e+01  2.82539370e+00  6.40121700e-01  1.61277800e-01  1.10000000e+00
  1.87311370e+01  2.82539370e+00  6.40121700e-01  1.61277800e-01  1.10000000e+00
  1.87311370e+01  2.82539370e+00  6.40121700e-01  1.61277800e-01  1.10000000e+00
Contraction coefficients                   R   N=          35
  1.83470016e-03  1.40373012e-02  6.88426061e-02  2.32184421e-01  4.67941342e-01
  3.62312032e-01 -1.19332409e-01 -1.60854212e-01  1.14345648e+00  6.89990956e-02
  3.16423980e-01  7.44308252e-01  1.00000000e+00  1.00000000e+00  1.00000000e+00
  3.34945995e-02  2.34726947e-01  8.13757318e-01  1.00000000e+00  1.00000000e+00
  3.34945995e-02  2.34726947e-01  8.13757318e-01  1.00000000e+00  1.00000000e+00
  3.34945995e-02  2.34726947e-01  8.13757318e-01  1.00000000e+00  1.00000000e+00
  3.34945995e-02  2.34726947e-01  8.13757318e-01  1.00000000e+00  1.00000000e+00
Coordinates of each shell                  R   N=          54
 -4.23982907e-09 -1.61349987e-08 -1.37037682e-10 -4.23982907e-09 -1.61349987e-08
 -1.37037682e-10 -4.23982907e-09 -1.61349987e-08 -1.37037682e-10 -4.23982907e-09
 -1.61349987e-08 -1.37037682e-10 -4.23982907e-09 -1.61349987e-08 -1.37037682e-10
 -4.23982907e-09 -1.61349987e-08 -1.37037682e-10 -1.25425320e+00  1.61115075e+00
 -1.57725898e-01 -1.25425320e+00  1.61115075e+00 -1.57725898e-01 -1.25425320e+00
  1.61115075e+00 -1.57725898e-01 -7.54340811e-01 -1.56154067e+00 -1.08921800e+00
 -7.54340811e-01 -1.56154067e+00 -1.08921800e+00 -7.54340811e-01 -1.56154067e+00
 -1.08921800e+00  1.58018767e-01 -5.52220258e-01  1.96568516e+00  1.58018767e-01
 -5.52220258e-01  1.96568516e+00  1.58018767e-01 -5.52220258e-01  1.96568516e+00
  1.85057530e+00  5.02610379e-01 -7.18741263e-01  1.85057530e+00  5.02610379e-01
 -7.18741263e-01  1.85057530e+00  5.02610379e-01 -7.18741263e-01
Total Energy                               R     -4.020171733485619e+01
orbital energies                           R   N=          35
 -1.12059069e+01 -9.44535867e-01 -5.44805230e-01 -5.44805220e-01 -5.44805209e-01
  2.56999192e-01  3.27819469e-01  3.27819472e-01  3.27819476e-01  7.25823194e-01
  7.25823199e-01  7.25823203e-01  1.14469731e+00  1.14469732e+00  1.14469733e+00
  1.21389480e+00  1.31600785e+00  1.62995209e+00  1.62995209e+00  2.35439463e+00
  2.35439464e+00  2.35439465e+00  2.37815271e+00  2.37815272e+00  2.37815275e+00
  2.96493956e+00  2.96493960e+00  2.96493966e+00  3.26870991e+00  3.26870992e+00
  3.50208034e+00  3.81327701e+00  3.81327703e+00  3.81327705e+00  4.84286224e+00
MO coefficients (C)                        R   N=        1225
  9.95684561e-01  2.81366571e-02  2.64463572e-11  7.06824742e-11 -8.04250878e-12
 -1.32844219e-02 -1.29618165e-10 -2.32580412e-10  7.33215105e-11 -1.79196292e-03
 -1.79196287e-03 -1.79196287e-03  3.57553245e-11  1.98611805e-11  2.24468998e-11
 -2.60787193e-05  2.42992096e-03 -1.08498244e-04  1.39371390e-04 -1.36439614e-05
 -2.60787862e-05  2.42992095e-03 -6.52536752e-05 -1.35079884e-04 -9.42219751e-05
 -2.60787600e-05  2.42992089e-03  1.36692976e-05 -4.77694019e-05  1.70040129e-04
 -2.60787223e-05  2.42992109e-03  1.60082601e-04  4.34779177e-05 -6.21741627e-05
  1.95146623e-01 -3.64803296e-01 -5.45204942e-09 -4.33859054e-09  4.69926083e-09
 -3.45931090e-01 -1.65803820e-09 -2.76254751e-09  1.00071219e-09  1.20054188e-03
  1.20054111e-03  1.20054114e-03 -7.97473034e-10 -2.27272661e-10 -3.88450218e-10
 -1.38095244e-01 -4.44734273e-02 -8.16781306e-03  1.04919629e-02 -1.02712557e-03
 -1.38095249e-01 -4.44734283e-02 -4.91233738e-03 -1.01688976e-02 -7.09308856e-03
 -1.38095244e-01 -4.44734275e-02  1.02903279e-03 -3.59610933e-03  1.28007237e-02
 -1.38095251e-01 -4.44734284e-02  1.20511182e-02  3.27304554e-03 -4.68050979e-03
  2.68960769e-09 -6.85441173e-09  1.74995218e-01  3.01766030e-01  2.50964435e-01
 -1.72166878e-09  8.64734602e-02  1.49116949e-01  1.24013465e-01  8.01294724e-03
 -1.24593233e-02  4.44637680e-03 -1.31499373e-02 -1.00927614e-02 -2.14952734e-02
  7.60780134e-02  6.66841032e-02  5.94251039e-03  9.69437433e-04  4.48801417e-03
 -2.93628636e-01 -2.57372156e-01 -4.29833882e-03 -9.88611204e-03 -6.23456858e-03
  1.18689465e-01  1.04034006e-01  2.25302299e-03  7.04820673e-03 -3.43878164e-03
  9.88611625e-02  8.66540499e-02 -3.05276365e-03  3.32462475e-03  6.39635177e-03
  3.45003068e-09 -7.30102325e-09  1.07269399e-01  2.27545383e-01 -3.48404339e-01
 -8.55073964e-09  5.30069124e-02  1.12441000e-01 -1.72163161e-01  2.12489671e-02
  4.62644355e-03 -2.58754106e-02 -5.65672841e-04 -1.03853184e-02  5.14703193e-03
  9.61429557e-02  8.42714818e-02  5.64923429e-03 -1.28781573e-03 -5.20222334e-03
 -1.90098344e-02 -1.66625533e-02  1.28919181e-03  2.75841493e-03 -6.36132787e-03
 -2.65818355e-01 -2.32995824e-01  3.10989551e-03 -1.02573269e-03  1.11922966e-02
  1.88685233e-01  1.65386889e-01 -9.53069732e-03  6.53143267e-04 -1.30995404e-03
  1.70278484e-10  5.36491268e-10  3.77543586e-01 -2.04522788e-01 -1.73342956e-02
 -4.23839729e-09  1.86562252e-01 -1.01064444e-01 -8.56569958e-03  7.83151410e-03
 -1.59809992e-02  8.14948459e-03  2.35404616e-02 -9.27839309e-03 -7.99086499e-04
 -2.68082889e-01 -2.34980748e-01 -4.69705210e-03  1.06156104e-02 -1.64955938e-03
  1.79058217e-02  1.56948590e-02  6.60478567e-03 -2.43797909e-03  3.47022046e-04
  4.64023823e-02  4.06727421e-02  5.93137749e-03 -2.51347528e-03 -3.23064475e-03
  2.03774682e-01  1.78613140e-01 -6.01728965e-03 -6.65107187e-03  4.44953578e-03
  1.56883034e-01 -1.01635190e-01  4.48446005e-09 -8.96632999e-09 -7.59872501e-09
 -2.83173078e+00 -5.50885810e-09 -7.24126499e-08 -1.55285378e-08  1.13241007e-02
  1.13241009e-02  1.13241014e-02 -4.43012002e-10  3.08898984e-10 -3.02691189e-11
 -5.64751033e-03  1.05275316e+00  1.28590158e-03 -1.65180297e-03  1.61705258e-04
 -5.64751028e-03  1.05275312e+00  7.73374605e-04  1.60094156e-03  1.11670035e-03
 -5.64750744e-03  1.05275315e+00 -1.62005315e-04  5.66154470e-04 -2.01528328e-03
 -5.64751597e-03  1.05275313e+00 -1.89726941e-03 -5.15291620e-04  7.36876481e-04
 -2.53257840e-09  2.88917326e-09  2.18542909e-01 -1.91645696e-01  6.90411147e-02
  6.49335043e-08  1.10066306e+00 -9.65198737e-01  3.47716642e-01  3.35774430e-05
  5.05264546e-03 -5.08622371e-03 -6.94974955e-03  1.52876197e-03  6.61638152e-04
  7.45646631e-02  1.96570454e+00  5.90201050e-03 -5.56873122e-03  1.68114529e-03
 -7.43500631e-03 -1.96004734e-01  4.87978263e-03 -4.44963985e-03  1.47636138e-03
 -3.46694989e-02 -9.13971776e-01  4.99410908e-03 -4.52734051e-03  2.26261536e-03
 -3.24601609e-02 -8.55728098e-01  5.55704823e-03 -4.16168103e-03  1.31928942e-03
 -2.97050065e-09 -3.07471701e-09  1.22126171e-01  4.22263643e-02 -2.69365706e-01
  1.27659549e-07  6.15072652e-01  2.12667619e-01 -1.35662555e+00 -6.10093296e-03
 -6.80218037e-04  6.78115068e-03 -3.28416222e-03  3.03675986e-03 -3.09098769e-03
  5.35696887e-03  1.41222425e-01  2.82852352e-03  8.65034457e-04 -6.07715967e-03
 -1.69952051e-02 -4.48034914e-01  2.62703965e-03  6.80371746e-04 -6.27676193e-03
  6.69973255e-02  1.76621140e+00  2.65006935e-03  1.33554515e-03 -7.44389885e-03
 -5.53590747e-02 -1.45939909e+00  3.81564916e-03  1.24095255e-03 -6.49616973e-03
  2.21231551e-09 -6.84882542e-09  1.63033571e-01  2.25265650e-01  1.09229997e-01
 -2.22594148e-08  8.21097524e-01  1.13452136e+00  5.50122791e-01 -4.20966798e-03
  3.89144067e-03  3.18228435e-04  3.18952795e-03  4.07502685e-03  6.04849958e-03
 -1.77346238e-02 -4.67527775e-01  3.45409949e-03  5.38414714e-03  2.43902691e-03
  7.45585999e-02  1.96554516e+00  4.26343986e-03  6.29007614e-03  3.30530288e-03
 -1.45769142e-02 -3.84282914e-01  3.70722701e-03  5.00649847e-03  2.76334373e-03
 -4.22470471e-02 -1.11373447e+00  4.48966932e-03  5.30846473e-03  2.15475459e-03
  1.02122522e-10 -1.34376897e-08  6.86691855e-01  1.51183006e-01 -1.31246527e-01
 -1.31210604e-08 -1.30627766e+00 -2.87591917e-01  2.49667146e-01  5.14851683e-02
 -3.88262606e-02 -1.26589186e-02  3.01500852e-02 -4.25883888e-02 -1.88581623e-02
 -2.19314021e-01 -4.80134773e-02 -2.04562126e-02  5.14117676e-03  1.87863194e-03
 -2.24499678e-01 -4.91488545e-02 -1.79926007e-02 -1.12613085e-02 -3.01330061e-03
 -8.55813994e-02 -1.87359795e-02 -1.37313282e-02 -4.19372792e-03  6.60465779e-03
  5.29395073e-01  1.15898375e-01 -3.68749374e-02 -9.29263348e-03  1.15509908e-02
  1.96524331e-09  2.79018305e-08  3.73856216e-02 -5.57495165e-01 -4.46574867e-01
 -7.07998664e-08 -7.11177250e-02  1.06050993e+00  8.49508868e-01 -3.63830184e-03
  1.16666448e-02 -8.02833232e-03  5.68668786e-02  9.74848916e-03  4.98596582e-02
 -3.21313272e-01 -7.03438562e-02 -1.01555706e-02  2.34667059e-02  7.95387584e-03
  4.88131335e-01  1.06864769e-01  7.81541614e-03  2.91652333e-02  2.15239624e-02
 -2.07210301e-01 -4.53637812e-02 -1.75427810e-06  8.73737183e-03  1.86258867e-02
  4.03922815e-02  8.84287716e-03 -2.50651777e-03  1.09306356e-02  9.81128934e-03
  4.66301269e-10  1.63492414e-08  1.96683174e-01 -4.21865499e-01  5.43114075e-01
 -1.06245922e-08 -3.74145731e-01  8.02504761e-01 -1.03315310e+00 -3.42274726e-02
 -3.50421310e-02  6.92696135e-02  2.63027090e-02  7.57033920e-03 -2.02423472e-02
 -3.71780420e-01 -8.13924312e-02 -1.48890179e-02  2.25870437e-02 -1.24759401e-02
 -2.98203838e-02 -6.52848535e-03 -4.54737182e-03  7.54429404e-03 -1.18664001e-02
  4.89184287e-01  1.07095222e-01 -5.82444280e-03  1.49240665e-02 -3.35161848e-02
 -8.75834548e-02 -1.91743446e-02 -2.46440151e-04  9.65511599e-03 -1.25763799e-02
  8.68112868e-10 -8.58420531e-08  6.35285741e-01 -4.86318481e-01  1.03045942e-01
  1.81720417e-07 -1.02442354e+00  7.84207910e-01 -1.66165684e-01 -2.38529199e-02
  1.49494471e-01 -1.25641560e-01 -2.15334750e-01  5.88681936e-02  1.23175177e-02
  7.77161632e-01 -1.64519270e+00 -7.06668230e-02  1.15434627e-01 -7.15474974e-03
 -8.17490570e-02  1.73056588e-01  5.49864066e-02 -2.08930507e-02  1.85016099e-02
 -2.78183445e-01  5.88893400e-01  4.21807354e-02 -1.77452393e-02 -5.85887590e-02
 -4.17229053e-01  8.83242517e-01 -4.60988606e-02 -6.17934316e-02  4.40629363e-02
  1.46205240e-08 -1.11474781e-07  3.05746383e-01  2.50393926e-01 -7.03231212e-01
  1.34824339e-07 -4.93028216e-01 -4.03770177e-01  1.13398834e+00 -1.94498442e-01
 -2.43662848e-02  2.18864733e-01 -5.92331288e-02  9.83388557e-02 -7.11287696e-02
 -6.36959965e-02  1.34839734e-01  3.25511338e-02  6.28396925e-03 -5.13734288e-02
 -7.02566078e-02  1.48728063e-01  2.92906401e-02  3.20265913e-02 -4.33137827e-02
  7.16654994e-01 -1.51710458e+00  3.65948772e-02 -2.92540024e-02  1.18197687e-01
 -5.82702039e-01  1.23353650e+00 -1.07868920e-01 -1.67812037e-02 -1.81581180e-03
  8.86717593e-09  5.02764669e-08  3.91973576e-01  5.92882218e-01  3.81522612e-01
 -1.76726169e-07 -6.32073008e-01 -9.56046200e-01 -6.15220416e-01 -1.01957888e-01
  1.16570565e-01 -1.46126594e-02  1.07834337e-01  1.08978963e-01  1.90136979e-01
 -1.96365837e-01  4.15691796e-01  5.91737438e-02  5.98250075e-03  3.22872886e-02
  7.96855096e-01 -1.68688221e+00 -4.35618589e-02 -1.06519224e-01 -7.66954355e-02
 -2.35831736e-01  4.99238137e-01  2.47958993e-02  6.01278088e-02 -2.76697582e-02
 -3.64657392e-01  7.71952376e-01 -5.25001653e-02  2.21185053e-02  6.03079372e-02
  8.18287897e-02 -1.15621078e+00 -8.56080618e-08 -2.90923878e-08  8.54119287e-08
  2.08095014e+00  1.26963969e-07  2.31130699e-08 -1.32634842e-07  7.07365127e-03
  7.07362310e-03  7.07360116e-03  2.71721665e-08 -1.88871959e-08  7.55809261e-09
  5.50030774e-01 -7.07106734e-01 -5.78774605e-02  7.43464664e-02 -7.27824636e-03
  5.50030770e-01 -7.07106812e-01 -3.48090295e-02 -7.20572267e-02 -5.02619044e-02
  5.50030706e-01 -7.07106642e-01  7.29175781e-03 -2.54821784e-02  9.07064350e-02
  5.50030902e-01 -7.07107013e-01  8.53947341e-02  2.31929359e-02 -3.31662871e-02
  1.23175186e-01  1.84491365e+00 -7.03228250e-09 -7.60762277e-09  5.44305157e-09
 -5.22360516e+00 -5.82800922e-08 -1.10182650e-07  3.13186741e-08  1.30477734e-01
  1.30477734e-01  1.30477714e-01 -4.15626881e-09 -1.17498682e-08 -1.54862471e-08
  4.07224039e-01  9.28592760e-01 -2.42407342e-03  3.11383273e-03 -3.04833882e-04
  4.07223928e-01  9.28592837e-01 -1.45789806e-03 -3.01796078e-03 -2.10509681e-03
  4.07223974e-01  9.28592777e-01  3.05392560e-04 -1.06727734e-03  3.79903074e-03
  4.07224030e-01  9.28592822e-01  3.57657152e-03  9.71379531e-04 -1.38909960e-03
  3.58729762e-09  3.71044215e-08 -7.94102363e-10  7.98197628e-09 -4.10959960e-10
 -1.15365265e-07  7.45874016e-10 -6.46678221e-09  1.72598523e-10  2.53616526e-01
 -4.55313205e-01  2.01696688e-01 -2.63052297e-01  8.27463679e-02  3.88857674e-01
  1.53285698e-08  2.67990385e-08 -1.80944808e-01 -1.30157401e-01  1.09350491e-01
  1.36421102e-08  1.30855957e-08  2.24395039e-02  1.34072295e-01 -2.07751227e-01
  1.10409960e-08  1.53357041e-08  7.96953484e-02  2.27961369e-01  5.76346220e-02
  1.73572392e-08  2.17555845e-08  7.88099483e-02 -2.31876295e-01  4.07661323e-02
  4.90344831e-10  5.06901893e-09  9.77091603e-10 -2.21074634e-09 -5.53395136e-09
 -1.57627921e-08 -9.09614740e-10  1.91264237e-09  4.68766153e-09  3.01301146e-01
 -1.35107029e-01 -1.66194116e-01  1.13437176e-01  5.33760417e-01 -2.15846584e-01
  4.13735694e-09  1.35360439e-09 -7.60056671e-02 -8.09092366e-02 -2.22072788e-01
  3.36448468e-10  6.59765432e-09 -2.29722792e-01  8.84603895e-02  3.22752495e-02
  3.40339781e-09 -1.79692647e-09  2.34352617e-01 -7.20492565e-02 -3.90800978e-02
 -3.44017947e-11  4.36122781e-09  7.13758501e-02  6.44981000e-02  2.28877638e-01
  0.00000000e+00 -1.19656272e-12 -2.42836270e-08  3.60489121e-09 -7.87746251e-08
  3.71987822e-12  1.59038964e-07 -4.28367712e-08  5.25536400e-07 -1.93741614e-07
 -3.25844756e-07  5.19586095e-07 -3.46621153e-08 -1.75064855e-08 -3.70698860e-07
  1.91473768e-07 -1.97916530e-08  1.37682291e-01  1.48264260e-01  4.19635556e-01
  3.27116278e-07 -2.46791510e-08 -8.97882719e-02  3.75363913e-01 -4.75951955e-01
 -5.76935110e-07  5.12812490e-08 -1.14377032e-01 -5.78719383e-01 -1.53385456e-01
  5.83447216e-08 -6.81374527e-09  6.64827009e-02  5.50912996e-02  2.09700824e-01
  0.00000000e+00  0.00000000e+00 -3.06932998e-08  1.97973143e-08  3.40384753e-08
  1.87233123e-12  2.29836577e-07 -1.19126673e-07 -2.02912057e-07  1.81598244e-07
 -9.22462124e-08 -8.93521887e-08  2.96547143e-07 -1.23656133e-07  1.07150540e-07
  2.40950747e-07 -2.27038237e-08  1.64455912e-01  1.60936955e-01  3.36178540e-01
 -1.13166381e-07  2.22269755e-09 -4.97765845e-01  9.33914196e-02  2.10839997e-01
  1.50272846e-07 -7.89287090e-09  4.64404023e-01 -1.36219046e-02 -4.11595267e-02
 -2.78057529e-07  2.83724527e-08 -1.31094547e-01 -2.40706240e-01 -5.05858619e-01
  0.00000000e+00  0.00000000e+00 -1.15644286e-07  5.00644496e-08  1.75866313e-08
  1.24095757e-12  7.49605123e-07 -2.97964164e-07 -1.26471880e-07  3.65565146e-07
 -4.84230800e-07  1.18666000e-07  7.16619359e-07 -3.54771997e-07 -1.84576284e-08
  7.30570696e-07 -5.37155643e-08  4.38130111e-01  3.11800685e-01 -2.99056992e-01
 -1.49604485e-08 -2.15305076e-09 -2.70745635e-01  9.88650939e-02  4.57691969e-02
 -1.12679428e-08 -3.83700862e-09 -3.87019160e-01  1.34212394e-01  6.88162500e-02
 -7.04342593e-07  5.97045560e-08  2.19633221e-01 -5.44877598e-01  1.84471796e-01
 -2.65010446e-09  6.46019278e-11  2.61419485e-02 -3.27162077e-03  9.18583798e-02
  3.34434284e-08 -1.57074726e-01  1.96575659e-02 -5.51933978e-01  1.89099958e-01
  3.28849747e-01 -5.17949709e-01  6.58191006e-02  2.19302563e-02  3.93440156e-01
 -1.65326821e-01  1.66399815e-02  8.89780813e-02 -3.10691978e-02  2.54401305e-01
 -3.60758703e-01  3.63099316e-02  9.43485200e-02  3.77256745e-02  2.84819261e-01
  5.86772861e-01 -5.90580542e-02  7.94722570e-02 -3.58508613e-02  3.47873323e-01
 -6.06873583e-02  6.10811500e-03  6.24728723e-02 -1.15127384e-02  2.55855854e-01
  2.19121182e-09 -3.35655404e-08  1.01588169e-02 -9.48133888e-02 -6.26794936e-03
  5.21716303e-08 -6.10394929e-02  5.69689206e-01  3.76612209e-02  2.32521161e-01
  5.55723232e-02 -2.88093466e-01 -5.00285658e-01 -1.39512897e-01 -2.66844060e-01
 -5.17586509e-01  5.20945390e-02  8.17228296e-02 -3.29496239e-01 -1.04427294e-02
  4.63179849e-01 -4.66185397e-02 -1.07466014e-03 -3.20323073e-01 -5.90421583e-02
  1.31015023e-01 -1.31865604e-02  2.96120498e-02 -2.66351984e-01  4.14186781e-03
 -7.66083485e-02  7.71050021e-03  1.61409950e-02 -2.63546170e-01 -1.26461313e-02
  3.49994622e-09  1.54435026e-08  9.13535104e-02  1.14797728e-02 -2.55894079e-02
 -8.11606874e-08 -5.48900374e-01 -6.89766257e-02  1.53754731e-01 -4.35710324e-01
  3.13290778e-01  1.22419545e-01 -3.12905467e-01  3.51307025e-01  1.05243845e-01
 -2.89603326e-01  2.91483378e-02  2.80970740e-01 -7.16411430e-03 -6.64801716e-02
 -1.85516734e-01  1.86720657e-02  2.62455287e-01  5.55427986e-02 -5.35127968e-02
 -1.32783740e-01  1.33645655e-02  2.49112544e-01  3.76028957e-02 -9.19088960e-02
  6.07903830e-01 -6.11848965e-02  3.44129332e-01  5.68557696e-02 -1.06494841e-01
  1.38643101e-09 -1.64540447e-08  1.76524877e-01 -4.18609805e-02 -4.20240218e-02
  1.35314177e-08  5.85017499e-01 -1.38730604e-01 -1.39270960e-01 -2.45676815e-01
  2.52153322e-01 -6.47650980e-03 -3.51932974e-01  2.17190408e-01  2.16016694e-02
 -5.17303846e-02  3.78713701e-01 -2.36439867e-01 -3.37583118e-01  1.93021829e-01
 -4.03599966e-03  2.95471769e-02 -5.94638383e-01  1.81700517e-01  1.71223863e-01
 -5.79129643e-03  4.23975629e-02 -6.17574601e-01  1.63718907e-01  7.98188153e-02
  6.15576820e-02 -4.50658445e-01  4.75894510e-02  3.24410812e-01 -1.10523300e-01
 -3.28224029e-09 -5.60774031e-08  1.44501494e-02  1.58310275e-01 -9.69971520e-02
  1.02144436e-07  4.78889688e-02  5.24652856e-01 -3.21456273e-01 -3.21267038e-01
 -8.62982636e-02  4.07565262e-01  2.05349191e-01  1.61804190e-01  3.58735811e-02
  4.62339529e-02 -3.38475030e-01 -3.86021236e-01 -1.17614902e-01  2.94192506e-01
 -2.79448376e-02  2.04581670e-01  7.19850148e-02 -2.96330038e-01  5.12744748e-01
 -5.05539214e-02  3.70100924e-01 -9.63932127e-02 -3.87388363e-01 -2.39184145e-01
  3.22647506e-02 -2.36207607e-01  2.95739760e-01 -4.55162165e-01  2.02105189e-01
 -3.41039359e-09 -2.35773563e-08  5.75287208e-02  8.86843462e-02  1.53313198e-01
  5.71535663e-08  1.90654759e-01  2.93906987e-01  5.08092117e-01 -7.48419752e-03
  2.26879251e-01 -2.19395078e-01  2.00569971e-01  1.02587588e-01  3.70071939e-01
  8.53183843e-03 -6.24609529e-02 -2.61523373e-01 -2.27976134e-01 -5.39559190e-01
 -6.39468747e-02  4.68149703e-01  7.98789965e-02  2.70812277e-01 -1.28305512e-01
  4.79287548e-02 -3.50882558e-01 -1.55667164e-01 -4.60911350e-01  1.39625595e-02
  7.48624301e-03 -5.48062178e-02 -1.19289069e-01 -2.85804983e-01 -5.62931748e-01
 -1.95582584e-10  2.81203089e-09 -2.60380826e-08  1.76235375e-08  1.50571488e-08
  1.92237979e-09 -2.28649619e-08  1.96847971e-08  2.67190495e-08  4.23785164e-01
 -1.90042239e-01 -2.33742923e-01  1.59538804e-01  7.50730255e-01 -3.03571934e-01
 -6.70989685e-09 -3.27452398e-08  1.55827989e-01  1.65878234e-01  4.55264608e-01
 -4.04489038e-10  1.50177234e-08  4.70952333e-01 -1.81358986e-01 -6.61567524e-02
  7.09496821e-10 -1.29632221e-08 -4.80449047e-01  1.47696163e-01  8.01149584e-02
  4.30683123e-09  2.66546307e-08 -1.46331275e-01 -1.32215432e-01 -4.69222883e-01
 -1.42871504e-09  2.05493190e-08  2.29791679e-08  6.22320147e-08 -4.88409107e-08
  1.40523567e-08  1.99928407e-08  2.66195667e-08 -3.67926492e-08  3.56697984e-01
 -6.40387624e-01  2.83689657e-01 -3.69983765e-01  1.16363090e-01  5.46930993e-01
 -1.87528732e-08 -4.23779340e-08  3.70950013e-01  2.66830907e-01 -2.24190117e-01
  7.93954592e-09  1.94807631e-08 -4.60147999e-02 -2.74856379e-01  4.25911351e-01
  1.42503964e-08  5.55626888e-08 -1.63371093e-01 -4.67346010e-01 -1.18158471e-01
 -1.87741680e-08 -6.21733439e-08 -1.61564119e-01  4.75371625e-01 -8.35627937e-02
  1.25620364e-01 -9.58443914e-01 -5.94717665e-09 -1.03744718e-07 -2.42956596e-08
 -1.08000654e+00 -2.78967856e-09 -9.23893479e-08 -2.43866496e-08  3.12941589e-02
  3.12940529e-02  3.12940643e-02  5.74006212e-08 -1.94000046e-08  5.87723798e-08
  2.85761704e-01  3.04506176e-01  4.05000238e-01 -5.20242919e-01  5.09299118e-02
  2.85761604e-01  3.04506067e-01  2.43577703e-01  5.04223654e-01  3.51709998e-01
  2.85761673e-01  3.04506130e-01 -5.10244789e-02  1.78312726e-01 -6.34722570e-01
  2.85761641e-01  3.04506132e-01 -5.97553413e-01 -1.62293573e-01  2.32082573e-01
 -4.54882087e-09  4.84404759e-08  3.38969590e-01 -6.25688999e-01  6.60490393e-01
  2.00126554e-08  1.76238244e-01 -3.25310395e-01  3.43404439e-01 -4.71647197e-01
 -5.64997072e-01  1.03664424e+00  5.22442783e-01  8.18016383e-02 -2.58413751e-01
  6.73501476e-01  3.95988618e-01  5.77913081e-01 -7.45297455e-01  8.22193439e-02
 -8.42094490e-04 -4.95119830e-04  4.80597503e-03 -1.05575252e-02  9.58189077e-03
 -7.43588516e-01 -4.37196639e-01  8.48941400e-02 -2.88041250e-01  1.00110904e+00
  7.09290957e-02  4.17031218e-02 -8.37483851e-02 -3.38340159e-02  4.47643489e-02
 -8.77874325e-09  1.67447895e-07  2.19941247e-01 -6.27582093e-01 -7.07390508e-01
  7.45146060e-08  1.14352626e-01 -3.26294628e-01 -3.67788884e-01  1.74230423e-01
  1.05699438e-01 -2.79929863e-01  9.08675292e-01 -7.82906966e-03  7.19912072e-01
  5.14921653e-01  3.02750799e-01  4.41234220e-01 -5.72118029e-01  4.41309691e-02
 -6.94168765e-01 -4.08140014e-01 -3.51593915e-01 -7.44554087e-01 -5.23512659e-01
  4.42100793e-01  2.59935394e-01 -4.39626507e-02  1.55812761e-01 -6.00071295e-01
 -2.62853882e-01 -1.54546267e-01  3.33164418e-01  7.98683158e-02 -1.39005637e-01
  3.99022945e-09 -1.58217752e-08  8.82813796e-01  3.96596452e-01 -7.73683016e-02
 -4.61092790e-09  4.58995569e-01  2.06199771e-01 -4.02256047e-02  8.14836750e-01
 -5.96631141e-01 -2.18205569e-01  2.38674434e-01 -6.80582665e-01 -4.38291325e-01
  1.99802966e-01  1.17475166e-01  1.83530124e-01 -2.12107790e-01  2.01691944e-02
  5.26116920e-01  3.09333086e-01  2.82689751e-01  5.63083145e-01  3.87297224e-01
  1.01453572e-01  5.96501461e-02  2.76994640e-03  4.41077990e-02 -1.36392160e-01
 -8.27373471e-01 -4.86458398e-01  1.05162997e+00  2.88042127e-01 -4.04338769e-01
  4.78379649e-01 -2.84809723e+00  1.54530132e-08  4.52065669e-09 -1.56266644e-08
 -2.11615344e+00 -2.01243309e-08 -3.21031249e-08  1.25678458e-08  2.05125561e+00
  2.05125565e+00  2.05125566e+00  3.20298952e-08  1.57805208e-08  1.88024863e-08
 -2.62131562e-01  3.83791210e-01 -1.84673395e-01  2.37222168e-01 -2.32232013e-02
 -2.62131622e-01  3.83791218e-01 -1.11067437e-01 -2.29917720e-01 -1.60373996e-01
 -2.62131585e-01  3.83791202e-01  2.32663244e-02 -8.13076602e-02  2.89423025e-01
 -2.62131590e-01  3.83791236e-01  2.72474511e-01  7.40032053e-02 -1.05825833e-01
orbital energies                           R   N=          35
 -1.12059069e+01 -9.44535867e-01 -5.44805230e-01 -5.44805220e-01 -5.44805209e-01
  2.56999192e-01  3.27819469e-01  3.27819472e-01  3.27819476e-01  7.25823194e-01
  7.25823199e-01  7.25823203e-01  1.14469731e+00  1.14469732e+00  1.14469733e+00
  1.21389480e+00  1.31600785e+00  1.62995209e+00  1.62995209e+00  2.35439463e+00
  2.35439464e+00  2.35439465e+00  2.37815271e+00  2.37815272e+00  2.37815275e+00
  2.96493956e+00  2.96493960e+00  2.96493966e+00  3.26870991e+00  3.26870992e+00
  3.50208034e+00  3.81327701e+00  3.81327703e+00  3.81327705e+00  4.84286224e+00
MO coefficients (C)                        R   N=        1225
  9.95684561e-01  2.81366571e-02  2.64463572e-11  7.06824742e-11 -8.04250878e-12
 -1.32844219e-02 -1.29618165e-10 -2.32580412e-10  7.33215105e-11 -1.79196292e-03
 -1.79196287e-03 -1.79196287e-03  3.57553245e-11  1.98611805e-11  2.24468998e-11
 -2.60787193e-05  2.42992096e-03 -1.08498244e-04  1.39371390e-04 -1.36439614e-05
 -2.60787862e-05  2.42992095e-03 -6.52536752e-05 -1.35079884e-04 -9.42219751e-05
 -2.60787600e-05  2.42992089e-03  1.36692976e-05 -4.77694019e-05  1.70040129e-04
 -2.60787223e-05  2.42992109e-03  1.60082601e-04  4.34779177e-05 -6.21741627e-05
  1.95146623e-01 -3.64803296e-01 -5.45204942e-09 -4.33859054e-09  4.69926083e-09
 -3.45931090e-01 -1.65803820e-09 -2.76254751e-09  1.00071219e-09  1.20054188e-03
  1.20054111e-03  1.20054114e-03 -7.97473034e-10 -2.27272661e-10 -3.88450218e-10
 -1.38095244e-01 -4.44734273e-02 -8.16781306e-03  1.04919629e-02 -1.02712557e-03
 -1.38095249e-01 -4.44734283e-02 -4.91233738e-03 -1.01688976e-02 -7.09308856e-03
 -1.38095244e-01 -4.44734275e-02  1.02903279e-03 -3.59610933e-03  1.28007237e-02
 -1.38095251e-01 -4.44734284e-02  1.20511182e-02  3.27304554e-03 -4.68050979e-03
  2.68960769e-09 -6.85441173e-09  1.74995218e-01  3.01766030e-01  2.50964435e-01
 -1.72166878e-09  8.64734602e-02  1.49116949e-01  1.24013465e-01  8.01294724e-03
 -1.24593233e-02  4.44637680e-03 -1.31499373e-02 -1.00927614e-02 -2.14952734e-02
  7.60780134e-02  6.66841032e-02  5.94251039e-03  9.69437433e-04  4.48801417e-03
 -2.93628636e-01 -2.57372156e-01 -4.29833882e-03 -9.88611204e-03 -6.23456858e-03
  1.18689465e-01  1.04034006e-01  2.25302299e-03  7.04820673e-03 -3.43878164e-03
  9.88611625e-02  8.66540499e-02 -3.05276365e-03  3.32462475e-03  6.39635177e-03
  3.45003068e-09 -7.30102325e-09  1.07269399e-01  2.27545383e-01 -3.48404339e-01
 -8.55073964e-09  5.30069124e-02  1.12441000e-01 -1.72163161e-01  2.12489671e-02
  4.62644355e-03 -2.58754106e-02 -5.65672841e-04 -1.03853184e-02  5.14703193e-03
  9.61429557e-02  8.42714818e-02  5.64923429e-03 -1.28781573e-03 -5.20222334e-03
 -1.90098344e-02 -1.66625533e-02  1.28919181e-03  2.75841493e-03 -6.36132787e-03
 -2.65818355e-01 -2.32995824e-01  3.10989551e-03 -1.02573269e-03  1.11922966e-02
  1.88685233e-01  1.65386889e-01 -9.53069732e-03  6.53143267e-04 -1.30995404e-03
  1.70278484e-10  5.36491268e-10  3.77543586e-01 -2.04522788e-01 -1.73342956e-02
 -4.23839729e-09  1.86562252e-01 -1.01064444e-01 -8.56569958e-03  7.83151410e-03
 -1.59809992e-02  8.14948459e-03  2.35404616e-02 -9.27839309e-03 -7.99086499e-04
 -2.68082889e-01 -2.34980748e-01 -4.69705210e-03  1.06156104e-02 -1.64955938e-03
  1.79058217e-02  1.56948590e-02  6.60478567e-03 -2.43797909e-03  3.47022046e-04
  4.64023823e-02  4.06727421e-02  5.93137749e-03 -2.51347528e-03 -3.23064475e-03
  2.03774682e-01  1.78613140e-01 -6.01728965e-03 -6.65107187e-03  4.44953578e-03
  1.56883034e-01 -1.01635190e-01  4.48446005e-09 -8.96632999e-09 -7.59872501e-09
 -2.83173078e+00 -5.50885810e-09 -7.24126499e-08 -1.55285378e-08  1.13241007e-02
  1.13241009e-02  1.13241014e-02 -4.43012002e-10  3.08898984e-10 -3.02691189e-11
 -5.64751033e-03  1.05275316e+00  1.28590158e-03 -1.65180297e-03  1.61705258e-04
 -5.64751028e-03  1.05275312e+00  7.73374605e-04  1.60094156e-03  1.11670035e-03
 -5.64750744e-03  1.05275315e+00 -1.62005315e-04  5.66154470e-04 -2.01528328e-03
 -5.64751597e-03  1.05275313e+00 -1.89726941e-03 -5.15291620e-04  7.36876481e-04
 -2.53257840e-09  2.88917326e-09  2.18542909e-01 -1.91645696e-01  6.90411147e-02
  6.49335043e-08  1.10066306e+00 -9.65198737e-01  3.47716642e-01  3.35774430e-05
  5.05264546e-03 -5.08622371e-03 -6.94974955e-03  1.52876197e-03  6.61638152e-04
  7.45646631e-02  1.96570454e+00  5.90201050e-03 -5.56873122e-03  1.68114529e-03
 -7.43500631e-03 -1.96004734e-01  4.87978263e-03 -4.44963985e-03  1.47636138e-03